36
Lattice="3.752110306 -6.498845686 0.0 3.752110306 6.498845686 0.0 0.0 0.0 7.06264348" Properties=species:S:1:pos:R:3:DFT_forces:R:3 DFT_energy=-172.41039928  pbc="T T T"
H        2.521550     0.000000     4.915820    0.009492     0.000002     0.352482
H        2.491340    -4.315120     4.915820   -0.004802     0.008268     0.352533
H        2.491340     4.315120     4.915820   -0.004800    -0.008252     0.352503
H        4.982670     0.000000     1.384500   -0.009512     0.000007     0.352520
H        1.260770    -2.183720     1.384500    0.004786    -0.008251     0.352528
H        1.260770     2.183720     1.384500    0.004782     0.008262     0.352534
H        3.454950     0.000000     3.611790    0.323428     0.000005    -0.100147
H        2.024630    -3.506770     3.611790   -0.161814     0.280047    -0.100083
H        2.024630     3.506770     3.611790   -0.161830    -0.280050    -0.100081
H        4.049270    -0.000000     0.080460   -0.323431     0.000011    -0.100141
H        1.727480    -2.992080     0.080460    0.161796    -0.280029    -0.100075
H        1.727480     2.992080     0.080460    0.161800     0.280048    -0.100080
H        5.486420    -0.804140     3.379520    0.172128    -0.279890     0.118951
H        1.705310    -1.345400     3.379520    0.156554     0.289103     0.118997
H        4.064610    -4.349310     3.379520   -0.328593    -0.009047     0.119062
H        5.486420     0.804140     3.379520    0.172140     0.279909     0.118960
H        1.705310     1.345400     3.379520    0.156549    -0.289086     0.118991
H        4.064610     4.349310     3.379520   -0.328573     0.009053     0.119046
H        2.017810     0.804140     6.910840   -0.172148     0.279894     0.118967
H        5.798910     1.345400     6.910840   -0.156558    -0.289081     0.119002
H        3.439610     4.349310     6.910840    0.328582     0.009054     0.119064
H        2.017810    -0.804140     6.910840   -0.172158    -0.279901     0.118965
H        5.798910    -1.345400     6.910840   -0.156558     0.289092     0.119005
H        3.439610    -4.349310     6.910840    0.328553    -0.009056     0.119050
O        2.508150     0.000000     3.920880   -0.308115     0.000006    -0.255627
O        2.498040    -4.326730     3.920880    0.154516    -0.267777    -0.255341
O        2.498040     4.326730     3.920880    0.154314     0.267565    -0.255696
O        4.996080     0.000000     0.389550    0.308380     0.000043    -0.255265
O        1.254070    -2.172120     0.389550   -0.154414     0.267591    -0.255568
O        1.254070     2.172120     0.389550   -0.154458    -0.267740    -0.255354
O        5.008420     0.000000     3.039810   -0.322050     0.000120    -0.234924
O        1.247900    -2.161420     3.039810    0.160896    -0.278433    -0.235020
O        1.247900     2.161420     3.039810    0.160619     0.278578    -0.235026
O        2.495800    -0.000000     6.571130    0.321973     0.000014    -0.234785
O        2.504210    -4.337420     6.571130   -0.160701     0.278445    -0.235013
O        2.504210     4.337420     6.571130   -0.160772    -0.278524    -0.234938
36
Lattice="3.752110306 -6.498845686 0.0 3.752110306 6.498845686 0.0 0.0 0.0 7.06264348" Properties=species:S:1:pos:R:3:DFT_forces:R:3 DFT_energy=-138.77801585  pbc="T T T"
H        2.859650    -0.093190     4.922380    0.657117    -2.469603     9.225648
H        6.324950     2.025940     4.916230    1.134235    -1.787268     6.713628
H        2.491160     3.964180     5.119350   -0.631320     0.490318    -2.237839
H        5.102770    -0.125090     1.350190    0.258222     0.904620    -4.294430
H        1.361830    -2.236000     1.335950   -0.013492    -1.066145    -0.608663
H        4.722240    -4.204210     1.409270    2.789433     0.608546    -2.528856
H        3.509850    -0.305300     3.941930   -1.633669     2.530538    -2.702260
H        5.807610     2.914650     4.017600   -9.683987    16.554207    -1.906378
H        2.015560     3.216630     3.530740   -0.086397     1.213799     1.394019
H        3.591600     0.209880     7.059810    2.371002    -0.948857     0.187039
H        5.331080     3.721260     6.812890    5.214151    -7.165749    -6.102256
H        1.834560     2.579190     7.010680   25.122661     9.230178   -45.689061
H        5.245570    -0.511740     3.732750    1.331982    -2.793747     0.088634
H        1.639420    -1.177260     3.343520   -1.158419    -4.222143    -1.233684
H        4.178220    -4.499870     3.037850    3.624708     1.802844     0.115011
H        5.125800     0.880760     3.829040    0.458713    -0.206007    -3.128126
H        1.759190     1.240480     3.761920    1.323617     2.924280    -2.109859
H        4.112070     4.369590     3.430040   -2.043194    -0.676902     0.320224
H        1.991330     0.742240     6.623850   -1.275493    -1.497603     0.939517
H        5.899240     1.326450     0.086820   -5.097661    -6.905517     6.499336
H        3.365850     3.968030     6.890920   -3.557170     3.525150     0.608293
H        2.357710    -0.880820     6.732870   -4.315939   -35.724428     5.141946
H        5.560200    -1.555410     6.850800  -30.397627    16.829337    14.719373
H        3.203610    -4.049780     6.854310    5.366607     4.215297     2.540153
O        2.529870     0.287650     4.221540    0.643925    -0.125774    -7.871806
O        6.207600     2.238510     4.067880    9.159251   -14.994322    -4.609259
O        2.459470     3.971130     4.051820    2.615214     4.430107     4.076175
O        5.174950     0.083100     0.204840   -5.537631    -1.019214     4.843258
O        4.966980     4.208570     0.329610   -5.840254     7.025499     6.759779
O        1.513450     2.478030     0.523440  -27.417920   -10.303887    47.272274
O        5.118170     0.135330     3.037360   -1.489486     1.867519     3.193423
O        4.984880     4.202690     3.028630    2.803538     5.431572     0.678079
O        1.699890     2.335230     2.971380   -7.736157    -9.689344    -0.858297
O        2.401410    -0.172900     6.646000    5.883510    38.389985    -4.170793
O        6.334630     1.872800     6.668400    1.259249     4.387142    -9.829984
O        6.142430    -1.876080     6.602500   35.898680   -20.764429   -15.434258
36
Lattice="3.752110306 -6.498845686 0.0 3.752110306 6.498845686 0.0 0.0 0.0 7.06264348" Properties=species:S:1:pos:R:3:DFT_forces:R:3 DFT_energy=-125.00305267  pbc="T T T"
H        2.459190     0.145800     4.959380    1.575505    -0.261033    -0.336358
H        6.063630     1.686370     5.098470    0.903651     1.687062     0.055183
H        2.716750     4.012300     5.243680   -1.058313     2.119776    -2.918791
H        4.896690     0.526260     1.504860    1.602956    -4.422036    -1.061152
H        1.193600    -1.936180     1.406720   -0.206475     0.018467     1.107418
H        1.286600     2.198950     1.353470   -1.566508     0.998605     0.166658
H        3.581800     0.162130     3.682750    8.372731    -2.122537    -2.988248
H        2.387150    -3.778060     3.519060    2.141978   113.479107   -22.261877
H        2.189560     3.271480     3.924680    0.123975     2.736074    -1.075793
H        4.191810    -0.036200     0.187300    2.453513    -2.378930     0.191635
H        5.362260     3.210400     0.251910   -1.378210     4.673754     0.049133
H        1.916100     3.014970     0.076070   -2.595427     0.833782    -0.749353
H        5.060990    -0.971020     3.286420    0.616311    -3.449042     1.937186
H        1.752050    -1.068400     3.275590    3.334097     6.390943     2.028064
H        3.908580    -4.158180     3.354170    2.434287     0.077330    -0.940187
H        5.212690     1.047830     3.208020    1.462978    -2.656295     0.862952
H        1.593010     1.138700     3.451270    0.863743     3.078915    -0.923341
H        4.279350     4.274210     3.458790   -4.120998    -0.413423     2.156475
H        1.923520     1.271460     0.148760   -1.441112    -1.975167    -1.587905
H        5.679820     1.451070     0.036160    1.653357    -0.083999    -3.438168
H        3.524870     4.197680     6.878370   -1.186290     2.187089     0.304168
H        2.163170    -0.715320     6.739480  -40.580416   -76.173442    20.568610
H        5.888300    -1.548330     6.484380  -23.598644    42.286821     0.057942
H        3.474380    -4.159070     6.999220   -0.208008    -0.903360    -3.007366
O        2.801950     0.349900     3.991580  -11.440060     2.681835     3.944691
O        6.121480     2.162670     3.631070   -3.450324  -114.522297    23.192299
O        2.490800     4.308560     3.956130    1.177875    -3.539243     3.702643
O        5.215000    -0.425290     0.539840   -4.853607     6.692421     0.401707
O        4.898060     4.485370     0.424280    0.594524    -5.948141    -1.494813
O        4.799100    -4.151870     0.241640    4.540955    -1.652569     2.801609
O        5.113010    -0.118380     2.944310   -0.659813     8.328228    -1.785748
O        1.270400    -1.780480     3.178640    0.659814    -5.775480    -4.450492
O        4.996090    -4.004850     3.045930   -2.535110    -5.652289     0.020769
O        2.436300    -0.193630     6.604540   40.820454    80.183384   -20.250219
O        6.279640     2.024970     6.188330   -1.389335    -0.796057     5.156972
O        6.228340    -2.138440     6.492130   26.935945   -45.728251     0.563696
36
Lattice="3.752110306 -6.498845686 0.0 3.752110306 6.498845686 0.0 0.0 0.0 7.06264348" Properties=species:S:1:pos:R:3:DFT_forces:R:3 DFT_energy=-153.35621073  pbc="T T T"
H        2.879270     0.087300     4.935120   -1.478218     0.735574    -1.445077
H        5.870750     2.128250     4.844870    1.775309     0.082280    -0.232883
H        2.474790     4.189720     4.907050   -0.663596     2.333273    -1.423453
H        4.887230    -0.262770     1.561420    1.279576     2.241514    -1.169614
H        1.437040    -1.841810     1.394500   -0.291412    -1.021822    -1.072160
H        4.931950    -4.424190     1.075200    0.256731    -1.128331     0.508808
H        3.651430    -0.220210     3.374780   -1.549160     2.302180     0.394074
H        1.983500    -3.209540     3.659130    1.692635    -3.238420    -0.158484
H        5.571990    -3.134680     3.736840   -0.117647     1.713438    -2.036639
H        4.017160    -0.153770     0.034460    2.172149     1.231344    -0.781057
H        1.876490    -2.596860     6.894280    0.006497    -2.256454     1.090991
H        5.354300    -3.667520     6.659290    0.146461    -1.911767     1.041876
H        5.301660    -1.008910     3.604320    0.167624    -0.938497    -0.907960
H        1.678920    -1.670060     3.508850    6.567053     7.927892     4.501709
H        3.993360    -4.697930     3.260190    0.726692     2.863112    -1.255419
H        5.368700     0.629360     3.385460   -0.556348     0.351955    -1.576570
H        1.255650     1.291850     3.582160    3.042839    -3.386782     2.512775
H        4.235170     4.570940     3.603400   -0.531818    -1.896445    -2.198922
H        2.315310     0.580480     0.017360    1.142996     0.334061    -2.409522
H        5.426740     1.224830     6.527950    2.150028     1.843164     2.610057
H        3.649240     4.616050     6.871360   -1.152821    -1.877669    -0.635257
H        2.372730    -0.939080     6.940960    0.388150     2.084968    -1.968631
H        5.829500    -1.558240     6.998430   -0.942300     0.686209    -1.010179
H        3.827410    -4.554290     0.028070   -3.470153    -0.243404    -1.254774
O        2.477240     0.353930     4.017630    3.682529    -4.167349    -0.613744
O        2.633280    -4.198100     3.970690   -2.619391     1.198253     0.203746
O        5.971000    -1.893780     3.646740    1.558947    -5.959972     4.775598
O        5.043790     0.122820     0.221970   -0.644592    -3.168047     2.529064
O        1.283090    -1.938540     0.384730    0.192068     2.255221    -0.689971
O        1.076340     1.588970     0.195190    2.270640     4.701289     0.053738
O        4.890210    -0.103280     2.847810   -1.513476     0.735037     1.068523
O        1.323360    -2.276370     3.017920   -6.391762    -4.187860    -2.191594
O        1.383710     1.990340     2.979770   -4.509397     3.998194    -1.547909
O        2.927430     0.174860     6.312420   -3.554848    -3.615739     5.757249
O        2.488260    -4.224520     6.817820   -1.080274    -0.514891    -1.374797
O        2.534010     4.231310     6.425020    1.848291    -0.105510     0.906410
36
Lattice="3.752110306 -6.498845686 0.0 3.752110306 6.498845686 0.0 0.0 0.0 7.06264348" Properties=species:S:1:pos:R:3:DFT_forces:R:3 DFT_energy=-123.8982789  pbc="T T T"
H        2.871440    -0.057210     4.818900   13.695808    -8.120517    43.593853
H        5.712780     2.182070     4.851890    3.442959    -0.912067    -1.519531
H        6.136120    -2.120640     5.000030   -0.855338    -2.685324    -2.612569
H        4.769550    -0.177250     1.289350   12.091670   -33.302807    49.286862
H        1.398710    -2.071490     1.123390    0.166330     0.656282     2.370897
H        4.788990    -4.167750     1.699420    1.919575    -2.110035    -2.073869
H        3.448740    -0.136690     3.830910    3.251152    -0.273010    -3.721385
H        1.962720    -3.361620     3.921600    2.031539    -0.581514    -2.449798
H        2.150650     3.521470     3.758240  -46.153471   -95.188314   -65.175378
H        3.920750    -0.035620     7.028320   -0.063325     0.279279     2.563834
H        5.438710     3.409470     0.043310   -1.644389     0.715298     0.099195
H        5.403480    -3.488970     0.093200    0.350939    -2.477913     0.358577
H        5.545680    -0.523580     3.070150    9.414892    -7.594213    -2.978048
H        1.964430    -1.392850     3.133050   -4.041840    -2.192658     0.828097
H        4.030130    -4.330940     3.593030    2.524763     0.049549    -0.372848
H        5.274090     0.847610     3.403080    0.079950     0.512847    -0.185670
H        1.368480     1.108250     3.499540    0.240886   -11.098587     2.705149
H        4.203720     4.566850     3.486280  -21.530137     8.177809    14.090485
H        2.096850     0.828710     0.090020    0.787648     2.517465     0.268933
H        5.630300     1.317020     6.987910   -4.988432   -12.789492     5.367223
H        3.124110     4.611500     6.752270   38.340138    15.763410    -9.787316
H        2.003460    -0.372800     6.744950   -9.943270   -11.822942     1.877929
H        5.693040    -1.033060     6.694800    0.972339    -3.762331     1.706239
H        3.353200    -4.246090     7.001920   -3.067261    -1.874728    -0.803091
O        2.626880     0.074100     4.189950  -17.325091     7.307693   -40.603404
O        2.701230    -4.207670     3.784320   -5.678031     1.466620     4.173638
O        2.355330     3.945070     4.058340   47.291437    98.320668    68.239030
O        4.631470     0.175820     0.758830  -12.026341    32.577236   -51.785835
O        4.793850     4.189830     0.294310    1.652372    -0.798116    -2.375887
O        1.420130     1.999450     0.363450   -3.444040     4.792616     3.418120
O        4.903810    -0.050260     3.298060   -8.227232     6.830925     3.327953
O        4.807170     4.351770     3.094130   25.868119    -5.831642   -14.041764
O        1.419630     1.908610     3.262780   -4.060059    12.240071    -3.968754
O        2.582750     0.174850     6.585460    9.759067     7.919402    -2.716454
O        5.928510     2.031960     6.734680    9.671128    14.370826    -5.512928
O        2.511570     4.327680     6.929440  -40.504454   -11.081782     8.408514
36
Lattice="3.752110306 -6.498845686 0.0 3.752110306 6.498845686 0.0 0.0 0.0 7.06264348" Properties=species:S:1:pos:R:3:DFT_forces:R:3 DFT_energy=-133.81968296  pbc="T T T"
H        2.831820     0.015840     4.950610   -0.209841    -0.745991    -3.613872
H        6.228980     1.782860     4.944750    0.578867     2.373586    -0.793742
H        5.943210    -2.141500     4.804180    1.155227    -0.050788    -1.492955
H        5.199580    -0.037260     1.387430   -1.894457     0.298380    -1.548276
H        4.797770     4.443570     1.348430    0.675944    -1.185810     1.389692
H        1.384830     2.345920     1.540080    0.244180    -1.590397    -0.790721
H        3.407460    -0.378380     3.377360   15.853806    -7.430165    -8.923517
H        2.191870    -3.304910     3.870410   -0.194914    -0.502800    -0.523792
H        1.914770     3.310430     3.794720   -3.276246    -7.350433    -1.010676
H        4.223880     0.004420     0.079640  -41.790720     6.971023    -9.139511
H        5.209760     3.465120     0.345770   46.373212   -86.763126   -35.473616
H        5.296330    -3.600770     0.050580    0.589219     8.116041    -1.209393
H        5.421360    -1.165280     3.279450   -0.524234     4.064655    -0.450364
H        1.592350    -1.408290     3.300180    0.772999    -0.349417    -0.290928
H        4.065800    -4.548730     3.717740    0.881431     0.919732    -2.135524
H        5.423130     1.097160     3.672240   -0.279413    -2.766946    -2.714080
H        1.731090     1.109750     2.946220    1.043666    -1.107540     0.436601
H        3.760250     4.290730     3.411620    1.757588    -1.283259    -1.096898
H        1.861240     0.700660     0.387510    0.789500    -0.226051    -4.643156
H        5.853960     1.103080     7.028290   -2.029544     1.573763    -2.021503
H        3.243240     3.861600     6.938070   -2.731057     2.980031    -0.639188
H        1.856290    -0.800120     0.200170    0.828181     0.643255    -3.915995
H        5.809490    -1.525360     0.165890   -6.919349    14.474907    19.254236
H        3.004380    -4.592750     0.119090    7.639816    -2.027173     5.717792
O        2.803590    -0.065240     3.764100  -17.450895     7.946692    13.614973
O        2.548220    -4.280010     3.935990    1.109682    -2.233498     2.283898
O        2.384460     4.048240     3.757630    4.012573     9.814293     3.681388
O        4.893800    -0.101960     0.234860   43.259041    -4.740821    12.747862
O        4.956480     3.946590     0.549520  -48.322378    87.793239    32.936412
O        1.509270     2.031920     0.095320   -1.408702    -6.174225     4.948162
O        5.060660     0.091700     2.997900    2.751913    -2.001488     0.570189
O        1.434300    -2.278820     2.813190   -3.600050     1.751709     3.986803
O        1.544850     2.059290     2.950160   -4.360563     0.251054    -0.205091
O        2.029810    -0.078690     6.443380   -0.496130    -1.500894     6.136128
O        2.496490    -4.203180     6.606370   -6.155527    -1.387536    -4.999507
O        6.021460    -1.953330     6.643080   11.327175   -18.554002   -20.071829
36
Lattice="3.752110306 -6.498845686 0.0 3.752110306 6.498845686 0.0 0.0 0.0 7.06264348" Properties=species:S:1:pos:R:3:DFT_forces:R:3 DFT_energy=-143.10681115  pbc="T T T"
H        2.576800    -0.370930     5.040600    1.327209     1.797029    -2.276293
H        2.720400    -4.107680     5.293150   -0.812586    -0.602580    -2.254425
H        2.469000     4.242700     4.945550    1.485707     0.617176    -2.658918
H        4.895120     0.434250     1.614960    0.789318    -1.192722    -2.398712
H        4.649120     4.287510     1.492460   -5.302117    -0.402424     6.989218
H        4.657830    -4.052150     1.289810   -1.314197    -1.397197    -1.109442
H        3.236510    -0.050010     3.415330    1.210334    -0.719642    -0.396674
H        2.230890    -3.408500     3.522460    0.512077    -2.828392     2.761818
H        5.615470    -2.965820     3.369270    2.870689     1.281791     1.571390
H        4.081270    -0.151040     0.150440   -0.522826     0.306012    -0.973952
H        1.922990    -3.019790     0.101240   -0.791235    -0.210726     2.228038
H        5.539710    -3.313130     0.254390   -1.540919    -1.509545    -1.613897
H        5.599970    -0.711080     3.146450   -2.363994     1.738118     2.593278
H        1.298110    -1.576480     4.048550    0.743382     1.669061     2.210263
H        4.089960    -4.488140     3.491050    1.487885     0.959085    -1.365186
H        5.506240     0.931720     3.520140   -1.639786    -1.355278     1.380618
H        1.522090     1.188200     3.603360    2.062111     0.377294    -1.026407
H        3.867930     4.398210     3.263240   -4.775152    -1.180254     0.836433
H        2.103720     0.963820     6.788830    3.457870    -3.374014    -0.323244
H        6.036000     1.203240     6.754620   -1.453042     2.982566     0.905584
H        3.393540     4.373350     6.753150   36.380287     4.883477    26.052760
H        1.425780    -0.963250     6.967760    2.214692    -1.284530     1.949742
H        5.903420    -1.328690     0.392360   -0.815122     1.324263    -2.723844
H        3.561810    -4.516500     6.910100   -1.489942    -2.330619    -2.077870
O        2.586760     0.136900     4.075920   -4.270957    -0.540977     3.591594
O        2.609240    -4.434920     4.225760    0.050237     4.425761    -1.127883
O        2.739710     4.336980     3.835550   -8.875877    -2.701447     1.278409
O        5.157660     0.011460     0.181520    1.875687    -1.089969     5.220940
O        1.440900    -2.196120     0.830960    6.685862     1.888126   -11.278632
O        4.326200    -4.080020     0.271980   18.544442     6.326926     7.357685
O        4.813040     0.093610     3.614030    5.879058    -0.862627    -4.705667
O        4.758390     4.538140     3.265950    8.861839    -0.935003    -3.669612
O        1.359910     2.037740     2.994850   -3.779040    -0.008644     1.823821
O        2.938980    -0.030850     6.628650   -6.651141     2.306377     0.519776
O        2.620080    -4.150770     6.905050  -12.382573    -3.520296    -4.200818
O        2.847660     4.286690     6.338520  -37.658182    -4.836178   -23.089891
36
Lattice="3.752110306 -6.498845686 0.0 3.752110306 6.498845686 0.0 0.0 0.0 7.06264348" Properties=species:S:1:pos:R:3:DFT_forces:R:3 DFT_energy=-94.67401317  pbc="T T T"
H        2.609790    -0.066170     5.401970    0.667610     1.033419     1.582398
H        6.193030     2.205650     5.232310   -1.895279     1.540863    -1.593269
H        6.061600    -2.302050     4.953340   -8.521549   -11.444904    73.885261
H        4.916700    -0.238550     1.343520    0.003426    -2.032376     5.157115
H        4.941120     4.435820     1.051540   -2.960685    -0.450475     9.336811
H        4.872850    -4.084840     1.755960    0.583929    -2.425430     0.764637
H        3.152720     0.128970     3.415660  180.251391   136.116396  -173.369857
H        5.605370     2.817700     3.527280  -23.475368    30.455664   -21.332974
H        2.223920     3.649250     3.623610   -0.473589    -0.211114     1.052812
H        3.976600     0.000660     0.059280    3.378689     0.963527     1.269489
H        1.886090    -3.118390     0.079230   -0.338263     1.736895    -0.326307
H        5.459370    -3.517230     0.130310   -0.562926    -0.994251    -0.729544
H        5.525950    -0.537170     3.362140   35.170557   -53.988906    41.511423
H        2.017610    -1.406570     3.283970   -2.794940    -0.469479     0.446029
H        4.084760    -4.278220     3.433440   -6.241574     1.070908     2.173383
H        5.744810     1.032010     3.478410   -1.611124    -1.401221    -1.149785
H        1.638040     1.325280     3.662200    0.571897    -0.767096    -1.212733
H        4.108860     4.087150     3.241610  -22.519153    -2.169857     1.897182
H        1.902300     1.034580     6.889410    1.314261    -0.461960    -0.279023
H        6.250940     1.476730     6.935800   -1.479560    -4.362006     1.691011
H        3.352470     4.543740     6.862700   19.705621     8.494412    -4.593822
H        1.852980    -0.690510     6.913390    1.583196    -0.769698     0.303492
H        6.036730    -1.360120     6.338900   -0.550135    -2.692318     3.416182
H        3.597480    -4.724850     0.155950    3.284821     2.627374    -0.296936
O        2.872420    -0.085410     3.687930 -182.630715  -137.183773   174.980184
O        5.970730     2.346650     3.880450   26.107367   -33.958271    24.984018
O        6.130480    -2.220800     4.338580    8.708863    11.136658   -74.914725
O        5.065460     0.149150     0.544940   -2.752349     0.914715    -7.173156
O        1.457760    -1.959850     0.247460    3.505929     0.031580    -8.808190
O        1.211030     2.019970     0.247320   -2.565290     1.647568     2.579218
O        5.236730    -0.100350     3.023980  -33.230426    56.454154   -40.046472
O        4.861440     4.218740     3.197460   25.591502     5.854961    -2.749181
O        4.910920    -4.433850     3.138520    5.381252     0.237905    -3.937547
O        2.595890     0.158480     6.605280   -2.285841    -1.197629    -3.217631
O        5.905570     2.287480     6.670800    1.454053     2.726915    -3.492411
O        2.707840     4.168130     0.012650  -20.375599    -6.063149     2.192917
36
Lattice="3.752110306 -6.498845686 0.0 3.752110306 6.498845686 0.0 0.0 0.0 7.06264348" Properties=species:S:1:pos:R:3:DFT_forces:R:3 DFT_energy=-133.44986735  pbc="T T T"
H        2.438200    -0.011250     4.488580   -0.153016    -0.169286    19.891813
H        2.819390    -4.673810     4.747470   -0.600172     1.374300     8.842778
H        2.591910     4.066060     4.704230   -0.585478     1.928742    11.931224
H        4.800870     0.110290     1.842940    0.780672     0.082721    -2.817686
H        5.021190     4.091540     1.492310    3.347461     0.618250    11.116973
H        4.893650    -4.318950     1.619500    1.607855    -1.191484    -1.479945
H        3.305380     0.001810     3.436160    4.336320     0.064804    -1.730409
H        5.745460     3.043390     3.414030   -0.487008     0.695234     0.713109
H        5.708980    -3.039310     3.484260   -3.297192    -4.125421    -1.866225
H        3.811740    -0.284240     0.049770    3.270373     2.279206     2.042531
H        1.673670    -2.545800     6.656150   -1.119931    -1.691555     4.913036
H        5.502130    -3.432680     0.352390   -0.269145    -1.413258    -0.209628
H        5.586790    -0.972980     3.379520   -1.121699     4.365163    -0.677872
H        1.813780    -1.408100     3.533720    0.965066    -2.050382    -0.669351
H        3.690990    -4.003070     3.673060    0.343889    -3.689197    -0.463834
H        5.419280     0.926410     3.389110    2.386006     2.280598     1.571268
H        1.539480     1.362940     3.579590    2.221412    -8.976677     3.424570
H        3.988390     4.274170     3.364630    1.375031    -2.449168     0.577748
H        2.104500     1.059810     6.783910    1.996325     9.889574     2.758127
H        5.900590     1.388630     6.539120   -2.307182    -7.873581     0.596109
H        3.355750     4.322840     6.902930   71.298823   -81.787988    53.322817
H        2.083010    -1.212200     6.920090   -0.853853     4.278458     1.052816
H        5.663380    -1.633290     7.015700    4.606087     0.482580    -0.718943
H        3.586670    -4.479960     0.016690   -2.501896     1.141129    -1.563917
O        2.431840     0.013300     3.701130   -4.026077    -1.819763   -17.138319
O        2.814940    -4.858620     3.902580    1.184710     2.744559    -8.058027
O        2.637060     3.920030     3.882980    6.153295     3.943296    -9.892071
O        4.980630     0.164940     0.639200   -4.466200    -2.922096    -0.593476
O        4.925400     4.049820     0.663000   -0.590613     0.610839   -16.170957
O        1.497650     2.079720     0.459730   -3.025099     5.406852     4.066150
O        5.084800     0.113260     3.080650   -2.298753    -8.534675    -0.408344
O        1.529240    -2.509020     3.247970   -2.668616     3.358769     0.466247
O        1.323990     2.118000     3.274510   -4.404827    11.761969    -5.672022
O        2.027080     0.232300     6.648350   -0.312734   -18.083324    -4.292434
O        6.029700     2.248040     6.510310    6.381233     7.013011     0.478462
O        3.021270     4.704490     6.659270  -77.165067    82.457799   -53.342317
36
Lattice="3.752110306 -6.498845686 0.0 3.752110306 6.498845686 0.0 0.0 0.0 7.06264348" Properties=species:S:1:pos:R:3:DFT_forces:R:3 DFT_energy=-122.59218719  pbc="T T T"
H        2.531660     0.099990     4.716640  -13.853721     6.868386    39.822553
H        2.630060    -4.398780     4.598900   16.377470    14.967881    79.246960
H        6.113910    -2.064010     4.982270    1.218280     1.178204     2.154624
H        4.753180     0.123730     1.366900    1.065609    -2.709958    -3.804481
H        1.345790    -2.117270     1.153130   -0.989502     1.312446     2.318135
H        1.330970     2.062350     1.693890   -1.741422     0.056161     0.773029
H        3.599620     0.009230     3.415190   -0.078280     0.009848     2.597580
H        2.035520    -3.474790     3.370000   -0.286368    -1.068838     1.851927
H        2.469310     3.585630     3.950260   -7.846075   -25.475058     7.140843
H        3.826700     0.327150     6.870910    1.807868    -3.008513     0.906962
H        5.349340     3.615260     0.090070    0.796904    -0.324534    -1.479741
H        5.007970    -3.727880     0.248030   86.020922   116.722700   -29.391329
H        5.903990    -0.621170     3.324280   -3.907593     0.518976    -1.568242
H        1.864610    -1.574160     3.481500    5.941754     4.500235     3.329541
H        3.795120    -4.351180     3.353380    1.463561    -0.471037    -1.283198
H        5.646830     0.743540     3.619920   -2.384379     0.225961    -1.197655
H        1.665960     1.512710     3.536840   -0.431018     0.384047    -2.099900
H        3.696430     4.356820     3.386710    1.479272     0.256469     0.707204
H        1.862060     0.840020     6.619730    0.223905     0.966303     0.474340
H        5.910150     1.447360     6.970930   -6.342392    -9.551296     1.164575