82
Lattice="5.664733239 0.020978133 -0.065125422 -1.406166355 7.176283282 0.918116301 -0.381775087 -0.022743384 35.566719414" Properties=species:S:1:pos:R:3:DFT_forces:R:3 DFT_energy=None  pbc="T T T"
Mo       4.356990     5.163450    17.123630     -0.001452       0.005813       0.001716
Mo       4.357620     5.148660    12.219320      0.004221       0.000342       0.003528
Fe       4.300380     5.233090    26.961660     -0.000927      -0.002794      -0.000548
Fe       4.306930     5.126650    22.046690     -0.001348      -0.000418       0.006538
H        4.242520     0.729960    10.897510     -0.003721      -0.000202      -0.002781
H        4.292540     2.348000    10.918740     -0.002320      -0.000920      -0.000857
H        3.171440     0.774410    17.505180     -0.003627      -0.004500       0.001223
H        3.158120     2.337240    17.505780      0.003138      -0.004964      -0.004043
H        1.463160     2.396990    15.068680     -0.000305      -0.009520      -0.006729
H        1.472500     0.794900    15.114120     -0.001347       0.007355      -0.011510
H        4.221020     0.735830    20.654150      0.002471       0.001988       0.005628
H        4.211480     2.331000    20.649660      0.002401      -0.003667       0.006000
H        1.385480     2.390190    24.966590      0.001549      -0.001041       0.000311
H        1.376540     0.770210    24.910390      0.002040      -0.002025       0.005173
H        0.351290     0.775270    18.404820     -0.002343      -0.003774       0.000076
H        0.366310     2.346400    18.424080      0.002023      -0.008222       0.006403
H        4.354620     6.017290     8.109930     -0.000858       0.005641      -0.005272
H        1.294150     6.002250     8.106670      0.002336       0.003139       0.001072
H        0.028610     4.214910    28.713740     -0.000651       0.000948      -0.000450
H        2.916650     4.328450    28.699070     -0.007761       0.004702      -0.002874
H        2.036760     3.696130     8.198380     -0.010051      -0.000638      -0.002976
H        4.832510     3.733860     8.218560     -0.000003       0.008930      -0.005715
H       -0.470850     6.628990    28.642220      0.001450       0.000600      -0.002480
H        2.290610     6.634290    28.623130     -0.003652      -0.000672      -0.003945
K        4.232980     1.580400    14.358060      0.001190       0.001134      -0.001313
K        1.415430     1.577010    11.771230     -0.003078      -0.005631      -0.002710
K        4.197560     1.625410    24.034760      0.002085       0.001626      -0.005299
K        1.337870     1.527200    21.524970      0.002538       0.001144       0.004457
Ni       1.526290     5.160400    17.160610      0.004691       0.000644      -0.009091
Ni       2.967220     5.162540    14.676060     -0.005887      -0.001084       0.000643
Ni       2.869770     5.146490     9.786350     -0.001283       0.002711      -0.006558
Ni       1.514140     5.161560    12.270720     -0.002449       0.003678       0.010623
Ni       0.062290     5.143920     9.852930      0.000756      -0.001711      -0.006855
Ni       0.141240     5.158850    14.715950     -0.004273       0.005440       0.005512
Ni       1.470890     5.188940    26.998940     -0.003189      -0.002357      -0.001674
Ni       2.857920     5.179030    24.512880     -0.000354       0.003353       0.003802
Ni       2.909820     5.153490    19.598910      0.012756      -0.012383       0.004920
Ni       1.468780     5.135320    22.081590      0.002376      -0.000324       0.004413
Ni       0.082270     5.132650    19.634580      0.003273      -0.002311       0.017558
Ni       0.018030     5.157070    24.546350      0.000064       0.001876       0.002891
O        1.530760     6.147670    13.906430      0.018300      -0.007546       0.004214
O        4.418570     4.156440    10.689790     -0.002702       0.007504       0.001366
O        2.899360     6.123240    11.443120      0.002100      -0.004058       0.002451
O        4.342550     6.212040     9.073510     -0.003518       0.003174       0.000469
O       -1.288670     6.126280    13.913180     -0.010977      -0.007882      -0.007489
O        3.049550     6.157650    16.252160      0.012530      -0.006784       0.020569
O        1.444790     4.176180    10.681700     -0.004680       0.001256      -0.007702
O        1.349470     6.238230     9.059390      0.002073       0.002035       0.003500
O        4.414250     4.190970    15.449930      0.002630      -0.010602       0.000327
O        2.924420     4.174960    13.057140      0.006337       0.000318      -0.003077
O        2.904790     4.203680    17.962810     -0.005221       0.006455       0.005825
O        0.110840     6.143300    11.503880     -0.002964      -0.003298       0.007499
O        0.141880     6.116000    16.341390      0.007063      -0.008900      -0.001268
O        0.000760     4.152730    18.024520     -0.010134       0.000232      -0.020206
O        1.561710     4.187990    15.469260      0.017241       0.003441       0.002994
O        0.143830     4.174090    13.113110     -0.002974       0.002735      -0.007488
O        4.236760     1.533140    11.476950     -0.000533       0.002593       0.001983
O        3.506540     1.559480    17.015730     -0.003308       0.004508      -0.001818
O        1.351150     1.577660    14.525110      0.001372      -0.001104       0.013364
O        1.416590     6.137870    23.750440      0.000401      -0.001867      -0.000679
O        4.342400     4.170180    20.366430      0.003985       0.000577       0.000544
O        2.995290     6.137210    21.184310      0.002133       0.001387       0.001728
O       -1.354920     6.107700    18.839330     -0.012282       0.008790      -0.006128
O       -1.408140     6.122780    23.730860      0.001613      -0.001292      -0.001989
O        2.939020     6.193430    26.075870      0.006731       0.003144      -0.006824
O        1.513460     4.169930    20.380480     -0.005391      -0.001051       0.002168
O        1.480070     6.117360    18.857130     -0.002546       0.003501       0.000140
O        4.277580     4.209960    25.283150     -0.000882       0.001070      -0.000774
O        2.846900     4.173070    22.892300      0.002590       0.000700      -0.001696
O        2.931930     4.123350    27.738610     -0.001796       0.000558       0.001828
O        0.083530     6.080790    21.263240      0.001619      -0.001850      -0.004973
O       -0.003580     6.160240    26.125050     -0.002320      -0.001534      -0.001276
O       -0.017240     4.068240    27.745170     -0.010390      -0.003432      -0.001721
O        1.452980     4.225460    25.348180      0.000250       0.002277      -0.000775
O       -0.061250     4.108100    22.954510     -0.000228      -0.000688       0.000520
O        4.107850     1.536120    21.225780      0.000506       0.001104      -0.004261
O        1.367600     1.601950    24.371490      0.002122       0.004708       0.000437
O        0.746560     1.550590    18.859100     -0.001424       0.005499      -0.002837
O        2.939550     4.076790     8.309480      0.008302       0.005127       0.003680
O        0.091370     4.059930     8.374690      0.003254       0.002276      -0.001346
O       -1.401440     6.329970    28.478740     -0.006652      -0.003361       0.002065
O        1.399930     6.226140    28.509900     -0.002707      -0.001628      -0.002151
82
Lattice="5.664733239 0.020978133 -0.065125422 -1.406166355 7.176283282 0.918116301 -0.381775087 -0.022743384 35.566719414" Properties=species:S:1:pos:R:3:DFT_forces:R:3 DFT_energy=None  pbc="T T T"
Mo       4.356990     5.163450    17.123630     -0.001452       0.005813       0.001716
Mo       4.357620     5.148660    12.219320      0.004221       0.000342       0.003528
Fe       4.300380     5.233090    26.961660     -0.000927      -0.002794      -0.000548
Fe       4.306930     5.126650    22.046690     -0.001348      -0.000418       0.006538
H        4.242520     0.729960    10.897510     -0.003721      -0.000202      -0.002781
H        4.292540     2.348000    10.918740     -0.002320      -0.000920      -0.000857
H        3.171440     0.774410    17.505180     -0.003627      -0.004500       0.001223
H        3.158120     2.337240    17.505780      0.003138      -0.004964      -0.004043
H        1.463160     2.396990    15.068680     -0.000305      -0.009520      -0.006729
H        1.472500     0.794900    15.114120     -0.001347       0.007355      -0.011510
H        4.221020     0.735830    20.654150      0.002471       0.001988       0.005628
H        4.211480     2.331000    20.649660      0.002401      -0.003667       0.006000
H        1.385480     2.390190    24.966590      0.001549      -0.001041       0.000311
H        1.376540     0.770210    24.910390      0.002040      -0.002025       0.005173
H        0.351290     0.775270    18.404820     -0.002343      -0.003774       0.000076
H        0.366310     2.346400    18.424080      0.002023      -0.008222       0.006403
H        4.354620     6.017290     8.109930     -0.000858       0.005641      -0.005272
H        1.294150     6.002250     8.106670      0.002336       0.003139       0.001072
H        0.028610     4.214910    28.713740     -0.000651       0.000948      -0.000450
H        2.916650     4.328450    28.699070     -0.007761       0.004702      -0.002874
H        2.036760     3.696130     8.198380     -0.010051      -0.000638      -0.002976
H        4.832510     3.733860     8.218560     -0.000003       0.008930      -0.005715
H       -0.470850     6.628990    28.642220      0.001450       0.000600      -0.002480
H        2.290610     6.634290    28.623130     -0.003652      -0.000672      -0.003945
K        4.232980     1.580400    14.358060      0.001190       0.001134      -0.001313
K        1.415430     1.577010    11.771230     -0.003078      -0.005631      -0.002710
K        4.197560     1.625410    24.034760      0.002085       0.001626      -0.005299
K        1.337870     1.527200    21.524970      0.002538       0.001144       0.004457
Ni       1.526290     5.160400    17.160610      0.004691       0.000644      -0.009091
Ni       2.967220     5.162540    14.676060     -0.005887      -0.001084       0.000643
Ni       2.869770     5.146490     9.786350     -0.001283       0.002711      -0.006558
Ni       1.514140     5.161560    12.270720     -0.002449       0.003678       0.010623
Ni       0.062290     5.143920     9.852930      0.000756      -0.001711      -0.006855
Ni       0.141240     5.158850    14.715950     -0.004273       0.005440       0.005512
Ni       1.470890     5.188940    26.998940     -0.003189      -0.002357      -0.001674
Ni       2.857920     5.179030    24.512880     -0.000354       0.003353       0.003802
Ni       2.909820     5.153490    19.598910      0.012756      -0.012383       0.004920
Ni       1.468780     5.135320    22.081590      0.002376      -0.000324       0.004413
Ni       0.082270     5.132650    19.634580      0.003273      -0.002311       0.017558
Ni       0.018030     5.157070    24.546350      0.000064       0.001876       0.002891
O        1.530760     6.147670    13.906430      0.018300      -0.007546       0.004214
O        4.418570     4.156440    10.689790     -0.002702       0.007504       0.001366
O        2.899360     6.123240    11.443120      0.002100      -0.004058       0.002451
O        4.342550     6.212040     9.073510     -0.003518       0.003174       0.000469
O       -1.288670     6.126280    13.913180     -0.010977      -0.007882      -0.007489
O        3.049550     6.157650    16.252160      0.012530      -0.006784       0.020569
O        1.444790     4.176180    10.681700     -0.004680       0.001256      -0.007702
O        1.349470     6.238230     9.059390      0.002073       0.002035       0.003500
O        4.414250     4.190970    15.449930      0.002630      -0.010602       0.000327
O        2.924420     4.174960    13.057140      0.006337       0.000318      -0.003077
O        2.904790     4.203680    17.962810     -0.005221       0.006455       0.005825
O        0.110840     6.143300    11.503880     -0.002964      -0.003298       0.007499
O        0.141880     6.116000    16.341390      0.007063      -0.008900      -0.001268
O        0.000760     4.152730    18.024520     -0.010134       0.000232      -0.020206
O        1.561710     4.187990    15.469260      0.017241       0.003441       0.002994
O        0.143830     4.174090    13.113110     -0.002974       0.002735      -0.007488
O        4.236760     1.533140    11.476950     -0.000533       0.002593       0.001983
O        3.506540     1.559480    17.015730     -0.003308       0.004508      -0.001818
O        1.351150     1.577660    14.525110      0.001372      -0.001104       0.013364
O        1.416590     6.137870    23.750440      0.000401      -0.001867      -0.000679
O        4.342400     4.170180    20.366430      0.003985       0.000577       0.000544
O        2.995290     6.137210    21.184310      0.002133       0.001387       0.001728
O       -1.354920     6.107700    18.839330     -0.012282       0.008790      -0.006128
O       -1.408140     6.122780    23.730860      0.001613      -0.001292      -0.001989
O        2.939020     6.193430    26.075870      0.006731       0.003144      -0.006824
O        1.513460     4.169930    20.380480     -0.005391      -0.001051       0.002168
O        1.480070     6.117360    18.857130     -0.002546       0.003501       0.000140
O        4.277580     4.209960    25.283150     -0.000882       0.001070      -0.000774
O        2.846900     4.173070    22.892300      0.002590       0.000700      -0.001696
O        2.931930     4.123350    27.738610     -0.001796       0.000558       0.001828
O        0.083530     6.080790    21.263240      0.001619      -0.001850      -0.004973
O       -0.003580     6.160240    26.125050     -0.002320      -0.001534      -0.001276
O       -0.017240     4.068240    27.745170     -0.010390      -0.003432      -0.001721
O        1.452980     4.225460    25.348180      0.000250       0.002277      -0.000775
O       -0.061250     4.108100    22.954510     -0.000228      -0.000688       0.000520
O        4.107850     1.536120    21.225780      0.000506       0.001104      -0.004261
O        1.367600     1.601950    24.371490      0.002122       0.004708       0.000437
O        0.746560     1.550590    18.859100     -0.001424       0.005499      -0.002837
O        2.939550     4.076790     8.309480      0.008302       0.005127       0.003680
O        0.091370     4.059930     8.374690      0.003254       0.002276      -0.001346
O       -1.401440     6.329970    28.478740     -0.006652      -0.003361       0.002065
O        1.399930     6.226140    28.509900     -0.002707      -0.001628      -0.002151
