82
Lattice="5.664733239 0.020978133 -0.065125422 -1.406166355 7.176283282 0.918116301 -0.381775087 -0.022743384 35.566719414" Properties=species:S:1:pos:R:3:DFT_forces:R:3 DFT_energy=-363.29066789  pbc="T T T"
Mo       4.356990     5.163450    17.123630   -0.001452     0.005813     0.001716
Mo       4.357620     5.148660    12.219320    0.004221     0.000342     0.003528
Fe       4.300380     5.233090    26.961660   -0.000927    -0.002794    -0.000548
Fe       4.306930     5.126650    22.046690   -0.001348    -0.000418     0.006538
H        4.242520     0.729960    10.897510   -0.003721    -0.000202    -0.002781
H        4.292540     2.348000    10.918740   -0.002320    -0.000920    -0.000857
H        3.171440     0.774410    17.505180   -0.003627    -0.004500     0.001223
H        3.158120     2.337240    17.505780    0.003138    -0.004964    -0.004043
H        1.463160     2.396990    15.068680   -0.000305    -0.009520    -0.006729
H        1.472500     0.794900    15.114120   -0.001347     0.007355    -0.011510
H        4.221020     0.735830    20.654150    0.002471     0.001988     0.005628
H        4.211480     2.331000    20.649660    0.002401    -0.003667     0.006000
H        1.385480     2.390190    24.966590    0.001549    -0.001041     0.000311
H        1.376540     0.770210    24.910390    0.002040    -0.002025     0.005173
H        0.351290     0.775270    18.404820   -0.002343    -0.003774     0.000076
H        0.366310     2.346400    18.424080    0.002023    -0.008222     0.006403
H        4.354620     6.017290     8.109930   -0.000858     0.005641    -0.005272
H        1.294150     6.002250     8.106670    0.002336     0.003139     0.001072
H        0.028610     4.214910    28.713740   -0.000651     0.000948    -0.000450
H        2.916650     4.328450    28.699070   -0.007761     0.004702    -0.002874
H        2.036760     3.696130     8.198380   -0.010051    -0.000638    -0.002976
H        4.832510     3.733860     8.218560   -0.000003     0.008930    -0.005715
H       -0.470850     6.628990    28.642220    0.001450     0.000600    -0.002480
H        2.290610     6.634290    28.623130   -0.003652    -0.000672    -0.003945
K        4.232980     1.580400    14.358060    0.001190     0.001134    -0.001313
K        1.415430     1.577010    11.771230   -0.003078    -0.005631    -0.002710
K        4.197560     1.625410    24.034760    0.002085     0.001626    -0.005299
K        1.337870     1.527200    21.524970    0.002538     0.001144     0.004457
Ni       1.526290     5.160400    17.160610    0.004691     0.000644    -0.009091
Ni       2.967220     5.162540    14.676060   -0.005887    -0.001084     0.000643
Ni       2.869770     5.146490     9.786350   -0.001283     0.002711    -0.006558
Ni       1.514140     5.161560    12.270720   -0.002449     0.003678     0.010623
Ni       0.062290     5.143920     9.852930    0.000756    -0.001711    -0.006855
Ni       0.141240     5.158850    14.715950   -0.004273     0.005440     0.005512
Ni       1.470890     5.188940    26.998940   -0.003189    -0.002357    -0.001674
Ni       2.857920     5.179030    24.512880   -0.000354     0.003353     0.003802
Ni       2.909820     5.153490    19.598910    0.012756    -0.012383     0.004920
Ni       1.468780     5.135320    22.081590    0.002376    -0.000324     0.004413
Ni       0.082270     5.132650    19.634580    0.003273    -0.002311     0.017558
Ni       0.018030     5.157070    24.546350    0.000064     0.001876     0.002891
O        1.530760     6.147670    13.906430    0.018300    -0.007546     0.004214
O        4.418570     4.156440    10.689790   -0.002702     0.007504     0.001366
O        2.899360     6.123240    11.443120    0.002100    -0.004058     0.002451
O        4.342550     6.212040     9.073510   -0.003518     0.003174     0.000469
O       -1.288670     6.126280    13.913180   -0.010977    -0.007882    -0.007489
O        3.049550     6.157650    16.252160    0.012530    -0.006784     0.020569
O        1.444790     4.176180    10.681700   -0.004680     0.001256    -0.007702
O        1.349470     6.238230     9.059390    0.002073     0.002035     0.003500
O        4.414250     4.190970    15.449930    0.002630    -0.010602     0.000327
O        2.924420     4.174960    13.057140    0.006337     0.000318    -0.003077
O        2.904790     4.203680    17.962810   -0.005221     0.006455     0.005825
O        0.110840     6.143300    11.503880   -0.002964    -0.003298     0.007499
O        0.141880     6.116000    16.341390    0.007063    -0.008900    -0.001268
O        0.000760     4.152730    18.024520   -0.010134     0.000232    -0.020206
O        1.561710     4.187990    15.469260    0.017241     0.003441     0.002994
O        0.143830     4.174090    13.113110   -0.002974     0.002735    -0.007488
O        4.236760     1.533140    11.476950   -0.000533     0.002593     0.001983
O        3.506540     1.559480    17.015730   -0.003308     0.004508    -0.001818
O        1.351150     1.577660    14.525110    0.001372    -0.001104     0.013364
O        1.416590     6.137870    23.750440    0.000401    -0.001867    -0.000679
O        4.342400     4.170180    20.366430    0.003985     0.000577     0.000544
O        2.995290     6.137210    21.184310    0.002133     0.001387     0.001728
O       -1.354920     6.107700    18.839330   -0.012282     0.008790    -0.006128
O       -1.408140     6.122780    23.730860    0.001613    -0.001292    -0.001989
O        2.939020     6.193430    26.075870    0.006731     0.003144    -0.006824
O        1.513460     4.169930    20.380480   -0.005391    -0.001051     0.002168
O        1.480070     6.117360    18.857130   -0.002546     0.003501     0.000140
O        4.277580     4.209960    25.283150   -0.000882     0.001070    -0.000774
O        2.846900     4.173070    22.892300    0.002590     0.000700    -0.001696
O        2.931930     4.123350    27.738610   -0.001796     0.000558     0.001828
O        0.083530     6.080790    21.263240    0.001619    -0.001850    -0.004973
O       -0.003580     6.160240    26.125050   -0.002320    -0.001534    -0.001276
O       -0.017240     4.068240    27.745170   -0.010390    -0.003432    -0.001721
O        1.452980     4.225460    25.348180    0.000250     0.002277    -0.000775
O       -0.061250     4.108100    22.954510   -0.000228    -0.000688     0.000520
O        4.107850     1.536120    21.225780    0.000506     0.001104    -0.004261
O        1.367600     1.601950    24.371490    0.002122     0.004708     0.000437
O        0.746560     1.550590    18.859100   -0.001424     0.005499    -0.002837
O        2.939550     4.076790     8.309480    0.008302     0.005127     0.003680
O        0.091370     4.059930     8.374690    0.003254     0.002276    -0.001346
O       -1.401440     6.329970    28.478740   -0.006652    -0.003361     0.002065
O        1.399930     6.226140    28.509900   -0.002707    -0.001628    -0.002151
82
Lattice="5.664733239 0.020978133 -0.065125422 -1.406166355 7.176283282 0.918116301 -0.381775087 -0.022743384 35.566719414" Properties=species:S:1:pos:R:3:DFT_forces:R:3 DFT_energy=-363.29107584  pbc="T T T"
Fe       4.356920     5.163730    17.123710    0.004479    -0.005873     0.006591
Fe       4.357830     5.148670    12.219490   -0.002552    -0.000783    -0.003589
Fe       4.300340     5.232950    26.961630   -0.004699    -0.000290     0.002139
Fe       4.306870     5.126630    22.047010    0.001082     0.001139     0.000220
H        4.242340     0.729950    10.897380   -0.003379     0.005914     0.003413
H        4.292430     2.347960    10.918700   -0.002252     0.002060    -0.001659
H        3.171270     0.774200    17.505240    0.002604     0.009317    -0.007457
H        3.158270     2.337000    17.505590   -0.005087     0.012787     0.007587
H        1.463140     2.396530    15.068350    0.004275     0.015041     0.014702
H        1.472440     0.795260    15.113560    0.004568    -0.023958     0.017213
H        4.221130     0.735930    20.654420    0.003803    -0.006439    -0.002631
H        4.211600     2.330820    20.649950    0.004555     0.009744    -0.006312
H        1.385550     2.390140    24.966600    0.001662     0.006360     0.005553
H        1.376640     0.770110    24.910640    0.001768     0.010529    -0.004067
H        0.351170     0.775090    18.404830    0.002745     0.007202     0.006059
H        0.366410     2.346000    18.424380   -0.011473     0.018688    -0.009623
H        4.354580     6.017570     8.109680   -0.001602     0.008299     0.005696
H        1.294270     6.002400     8.106720    0.002722     0.005077     0.004566
H        0.028580     4.214950    28.713710   -0.001651     0.000408    -0.002445
H        2.916280     4.328670    28.698930   -0.007128     0.006748     0.006940
H        2.036280     3.696100     8.198240    0.026661     0.014694     0.001303
H        4.832510     3.734290     8.218280    0.001927     0.008748    -0.005780
H       -0.470780     6.629020    28.642100   -0.012860    -0.003877    -0.004259
H        2.290440     6.634260    28.622940   -0.002749    -0.000163    -0.003513
K        4.233040     1.580450    14.357990    0.000905     0.001059     0.000691
K        1.415280     1.576740    11.771100   -0.003374    -0.004358    -0.002096
K        4.197660     1.625490    24.034500    0.002037     0.002163    -0.005760
K        1.338000     1.527260    21.525180    0.002049     0.002199     0.002268
Ni       1.526510     5.160440    17.160170    0.001326    -0.000448     0.011856
Ni       2.966930     5.162490    14.676090    0.014492    -0.006010     0.009829
Ni       2.869710     5.146620     9.786030   -0.000121     0.004582     0.006058
Ni       1.514020     5.161740    12.271230    0.004382    -0.004814    -0.008676
Ni       0.062330     5.143840     9.852600   -0.002313     0.004854     0.005929
Ni       0.141030     5.159110    14.716210    0.004287    -0.009921     0.002884
Ni       1.470740     5.188830    26.998860   -0.001069    -0.000851    -0.001362
Ni       2.857900     5.179190    24.513070    0.001710    -0.000782    -0.002673
Ni       2.910440     5.152890    19.599150   -0.010352     0.009590    -0.003751
Ni       1.468900     5.135300    22.081810    0.000855     0.000433     0.000032
Ni       0.082430     5.132540    19.635430   -0.002104     0.002977    -0.020407
Ni       0.018030     5.157160    24.546490   -0.000422    -0.001654    -0.002467
O        1.531640     6.147300    13.906640    0.004092    -0.000005     0.004511
O        4.418440     4.156800    10.689850   -0.001493     0.005357    -0.001940
O        2.899470     6.123050    11.443240    0.000143    -0.001773     0.002255
O        4.342380     6.212190     9.073530   -0.001014     0.000817    -0.011959
O       -1.289200     6.125900    13.912820   -0.004950    -0.002725    -0.001666
O        3.050160     6.157320    16.253160   -0.000829     0.000943    -0.001226
O        1.444570     4.176240    10.681320   -0.002597     0.003802    -0.001110
O        1.349570     6.238330     9.059560    0.000786     0.000952    -0.002800
O        4.414380     4.190460    15.449950    0.002365     0.000000    -0.003420
O        2.924720     4.174980    13.057000    0.001276    -0.000713     0.000580
O        2.904540     4.203990    17.963090   -0.001914    -0.000519     0.003179
O        0.110700     6.143140    11.504240   -0.000494    -0.001341     0.003459
O        0.142220     6.115570    16.341330    0.004098     0.000546    -0.004811
O        0.000270     4.152740    18.023540   -0.000300     0.002748    -0.001675
O        1.562540     4.188150    15.469410    0.002976     0.001051    -0.001655
O        0.143680     4.174220    13.112740   -0.000601     0.001568     0.000698
O        4.236730     1.533270    11.477040   -0.000881    -0.006227    -0.003703
O        3.506380     1.559690    17.015640   -0.001957    -0.024603    -0.004570
O        1.351220     1.577600    14.525760   -0.008839     0.003276    -0.034154
O        1.416610     6.137780    23.750410    0.000010     0.000003    -0.000058
O        4.342590     4.170210    20.366460    0.004777    -0.005626     0.005553
O        2.995400     6.137270    21.184400    0.004019    -0.002785     0.001101
O       -1.355520     6.108120    18.839040   -0.001964    -0.001318     0.005152
O       -1.408060     6.122720    23.730770    0.000744     0.000867     0.000405
O        2.939340     6.193580    26.075540    0.002703     0.003754    -0.001796
O        1.513200     4.169880    20.380590    0.000776    -0.004712     0.006317
O        1.479950     6.117530    18.857130    0.003545    -0.007075     0.004673
O        4.277530     4.210010    25.283110   -0.000718     0.000276    -0.001231
O        2.847020     4.173100    22.892210    0.001469     0.000078     0.001246
O        2.931850     4.123380    27.738700   -0.005502    -0.001342    -0.007989
O        0.083610     6.080700    21.263000    0.002256    -0.000481     0.003850
O       -0.003690     6.160170    26.124990    0.000486     0.000596     0.001676
O       -0.017740     4.068070    27.745090   -0.006964    -0.004577     0.001202
O        1.452990     4.225570    25.348140    0.000230     0.000704    -0.001295
O       -0.061260     4.108060    22.954540    0.000676    -0.000782     0.001821
O        4.107870     1.536180    21.225580   -0.002874    -0.003762     0.014302
O        1.367700     1.602180    24.371510    0.002661    -0.013940     0.004362
O        0.746490     1.550860    18.858960    0.006510    -0.029486     0.006438
O        2.939950     4.077030     8.309660   -0.026885    -0.012020    -0.005599
O        0.091520     4.060040     8.374620    0.001683     0.000239    -0.004928
O       -1.401760     6.329810    28.478840    0.007623    -0.000218     0.002968
O        1.399800     6.226060    28.509800   -0.004834    -0.001939    -0.001164
82
Lattice="5.664733239 0.020978133 -0.065125422 -1.406166355 7.176283282 0.918116301 -0.381775087 -0.022743384 35.566719414" Properties=species:S:1:pos:R:3:DFT_forces:R:3 DFT_energy=-363.29122799  pbc="T T T"
Fe       4.356920     5.163720    17.123700    0.003933    -0.005127     0.006360
Fe       4.357820     5.148670    12.219490   -0.002353    -0.000592    -0.003875
Fe       4.300340     5.232960    26.961640   -0.004502    -0.000296     0.001897
Fe       4.306870     5.126630    22.046990    0.000808     0.001280    -0.000574
H        4.242350     0.729950    10.897380   -0.003438     0.005733     0.003118
H        4.292430     2.347960    10.918700   -0.002257     0.002049    -0.001610
H        3.171280     0.774210    17.505240    0.002344     0.008977    -0.007112
H        3.158260     2.337010    17.505590   -0.004876     0.012266     0.007198
H        1.463140     2.396550    15.068370    0.004099     0.014475     0.013877
H        1.472440     0.795240    15.113590    0.004456    -0.023015     0.016116
H        4.221130     0.735920    20.654410    0.003841    -0.006169    -0.002330
H        4.211590     2.330830    20.649940    0.004499     0.009629    -0.005865
H        1.385550     2.390140    24.966600    0.001732     0.006175     0.005378
H        1.376640     0.770120    24.910620    0.001868     0.010302    -0.003583
H        0.351180     0.775100    18.404830    0.002482     0.006944     0.005837
H        0.366400     2.346020    18.424370   -0.010919     0.017845    -0.008958
H        4.354580     6.017550     8.109690   -0.001512     0.008408     0.005243
H        1.294260     6.002400     8.106720    0.002781     0.005176     0.004575
H        0.028580     4.214950    28.713710   -0.001553     0.000491    -0.002760
H        2.916300     4.328660    28.698930   -0.007279     0.006780     0.006282
H        2.036300     3.696100     8.198240    0.025379     0.014327     0.001227
H        4.832510     3.734270     8.218300    0.001912     0.008972    -0.005833
H       -0.470790     6.629020    28.642100   -0.012355    -0.003561    -0.004245
H        2.290440     6.634260    28.622950   -0.002636    -0.000018    -0.003577
K        4.233040     1.580450    14.358000    0.001018     0.000471     0.000054
K        1.415290     1.576760    11.771100   -0.003008    -0.004828    -0.001100
K        4.197660     1.625490    24.034510    0.002161     0.002265    -0.005876
K        1.337990     1.527260    21.525170    0.002176     0.001048     0.002265
Ni       1.526500     5.160430    17.160190    0.001569    -0.000272     0.010498
Ni       2.966950     5.162490    14.676090    0.013329    -0.006084     0.009872
Ni       2.869710     5.146610     9.786050   -0.000204     0.004714     0.005702
Ni       1.514030     5.161730    12.271210    0.004100    -0.004528    -0.008119
Ni       0.062330     5.143850     9.852620   -0.002148     0.004679     0.005909
Ni       0.141040     5.159100    14.716200    0.005109    -0.010092     0.002974
Ni       1.470750     5.188840    26.998860   -0.001192    -0.000939    -0.001656
Ni       2.857900     5.179190    24.513060    0.001695    -0.000521    -0.003058
Ni       2.910410     5.152920    19.599140   -0.010897     0.010088    -0.004444
Ni       1.468890     5.135300    22.081800    0.001158     0.000593    -0.000085
Ni       0.082420     5.132540    19.635390   -0.001729     0.003550    -0.020570
Ni       0.018030     5.157160    24.546480   -0.000463    -0.001431    -0.002780
O        1.531600     6.147320    13.906630    0.000632     0.000742     0.004205
O        4.418450     4.156780    10.689850   -0.001382     0.004302    -0.002218
O        2.899460     6.123050    11.443230   -0.000672    -0.000736     0.001438
O        4.342390     6.212180     9.073530   -0.000460     0.001005    -0.012022
O       -1.289180     6.125920    13.912830   -0.001581    -0.000999    -0.000730
O        3.050130     6.157330    16.253110   -0.000849     0.002465    -0.003145
O        1.444580     4.176230    10.681340   -0.002238     0.003599    -0.000396
O        1.349560     6.238320     9.059560    0.000527     0.001169    -0.003754
O        4.414370     4.190480    15.449940    0.002117     0.000845    -0.004763
O        2.924710     4.174970    13.057000   -0.000020    -0.001414    -0.000300
O        2.904550     4.203980    17.963080   -0.003070    -0.003240     0.004661
O        0.110700     6.143150    11.504220    0.000232    -0.000439     0.003593
O        0.142200     6.115590    16.341330    0.005207     0.003346    -0.006809
O        0.000300     4.152740    18.023590   -0.000114     0.003089     0.002185
O        1.562510     4.188150    15.469400    0.000251     0.001982    -0.002179
O        0.143690     4.174210    13.112760    0.000332     0.001652     0.001776
O        4.236730     1.533260    11.477040   -0.000979    -0.007133    -0.003679
O        3.506390     1.559680    17.015640   -0.001365    -0.027428    -0.004512
O        1.351220     1.577610    14.525720   -0.008580     0.004425    -0.034763
O        1.416610     6.137790    23.750410    0.000051     0.000325     0.000577
O        4.342580     4.170210    20.366460    0.003882    -0.005327     0.005983
O        2.995390     6.137270    21.184390    0.004002    -0.002522     0.002512
O       -1.355490     6.108100    18.839050    0.000622    -0.001885     0.006883
O       -1.408070     6.122720    23.730770    0.000723     0.000966     0.001128
O        2.939330     6.193570    26.075560    0.002151     0.003226    -0.000972
O        1.513210     4.169880    20.380580    0.001589    -0.004614     0.006143
O        1.479960     6.117520    18.857130    0.003014    -0.006837     0.005144
O        4.277540     4.210010    25.283110   -0.000548     0.000463    -0.000482
O        2.847020     4.173100    22.892220    0.001297     0.000206     0.001826
O        2.931850     4.123380    27.738700   -0.005617    -0.000759    -0.009457
O        0.083610     6.080710    21.263010    0.002188    -0.000690     0.005072
O       -0.003690     6.160170    26.124990    0.001275     0.000481     0.001956
O       -0.017720     4.068080    27.745090   -0.005221    -0.003814     0.000754
O        1.452990     4.225570    25.348150    0.000232     0.001286    -0.000220
O       -0.061260     4.108060    22.954530    0.000786    -0.000752     0.002655
O        4.107870     1.536170    21.225590   -0.002764    -0.004167     0.014979
O        1.367690     1.602170    24.371510    0.002294    -0.016204     0.004262
O        0.746490     1.550850    18.858970    0.006573    -0.031865     0.007203
O        2.939930     4.077020     8.309650   -0.029032    -0.013321    -0.006799
O        0.091510     4.060030     8.374620    0.001113    -0.000125    -0.005184
O       -1.401750     6.329820    28.478830    0.008926     0.000628     0.002605
O        1.399810     6.226060    28.509800   -0.004655    -0.001695    -0.001530
82
Lattice="5.664733239 0.020978133 -0.065125422 -1.406166355 7.176283282 0.918116301 -0.381775087 -0.022743384 35.566719414" Properties=species:S:1:pos:R:3:DFT_forces:R:3 DFT_energy=-363.29129681  pbc="T T T"
Fe       4.356940     5.163630    17.123680    0.001932    -0.001924     0.004250
Fe       4.357750     5.148670    12.219430   -0.000542     0.000330    -0.001052
Fe       4.300350     5.233000    26.961640   -0.003226    -0.001050     0.001440
Fe       4.306890     5.126640    22.046890    0.000152     0.000838     0.001071
H        4.242410     0.729950    10.897430   -0.003566     0.003736     0.001055
H        4.292470     2.347970    10.918710   -0.002293     0.001071    -0.001365
H        3.171330     0.774280    17.505220    0.000335     0.004524    -0.004337
H        3.158210     2.337090    17.505660   -0.002289     0.006581     0.003476
H        1.463150     2.396700    15.068470    0.002520     0.006337     0.006853
H        1.472460     0.795120    15.113770    0.002573    -0.012967     0.006757
H        4.221090     0.735890    20.654320    0.003426    -0.003471     0.000269
H        4.211550     2.330890    20.649840    0.003802     0.005250    -0.001938
H        1.385530     2.390160    24.966590    0.001707     0.003784     0.003654
H        1.376610     0.770150    24.910540    0.002012     0.006388    -0.000610
H        0.351220     0.775160    18.404830    0.000857     0.003413     0.004009
H        0.366370     2.346150    18.424270   -0.006506     0.009282    -0.003753
H        4.354600     6.017460     8.109770   -0.001302     0.007596     0.001726
H        1.294220     6.002350     8.106700    0.002664     0.004530     0.003350
H        0.028590     4.214930    28.713720   -0.001059     0.001067    -0.000399
H        2.916420     4.328590    28.698980   -0.007631     0.006499     0.004209
H        2.036460     3.696110     8.198290    0.013392     0.009341    -0.000245
H        4.832510     3.734130     8.218390    0.001390     0.009102    -0.005896
H       -0.470810     6.629010    28.642140   -0.007563    -0.002040    -0.003691
H        2.290500     6.634270    28.623010   -0.003075    -0.000230    -0.003734
K        4.233020     1.580430    14.358020    0.001041     0.000281    -0.000302
K        1.415340     1.576840    11.771140   -0.003018    -0.005282    -0.001716
K        4.197630     1.625460    24.034600    0.002069     0.001980    -0.005051
K        1.337950     1.527240    21.525100    0.002300     0.001330     0.003859
Ni       1.526430     5.160420    17.160330    0.002719    -0.000214     0.004245
Ni       2.967040     5.162510    14.676080    0.007311    -0.004644     0.008930
Ni       2.869730     5.146570     9.786150   -0.000575     0.004036     0.001548
Ni       1.514070     5.161680    12.271040    0.001960    -0.001494    -0.001810
Ni       0.062310     5.143870     9.852720   -0.001094     0.002546     0.001822
Ni       0.141110     5.159010    14.716110    0.003586    -0.006436     0.005560
Ni       1.470800     5.188870    26.998890   -0.001813    -0.001464    -0.001979
Ni       2.857910     5.179130    24.513000    0.000970     0.000354    -0.001738
Ni       2.910210     5.153110    19.599060   -0.004412     0.004517    -0.002708
Ni       1.468860     5.135310    22.081730    0.001592     0.000345     0.001227
Ni       0.082370     5.132580    19.635110   -0.000357     0.002309    -0.010035
Ni       0.018030     5.157130    24.546430   -0.000303    -0.000553    -0.001625
O        1.531310     6.147440    13.906560    0.002861    -0.000328     0.002687
O        4.418490     4.156670    10.689830   -0.001697     0.005663    -0.000949
O        2.899430     6.123120    11.443190    0.000289    -0.001810     0.001550
O        4.342440     6.212130     9.073520   -0.001383     0.001755    -0.008012
O       -1.289010     6.126040    13.912950   -0.002054    -0.001974    -0.004813
O        3.049930     6.157440    16.252780    0.001980    -0.000271     0.000618
O        1.444650     4.176210    10.681460   -0.003028     0.002657    -0.003026
O        1.349530     6.238290     9.059500    0.000967     0.001476    -0.001505
O        4.414330     4.190650    15.449940    0.003077    -0.001943    -0.003461
O        2.924610     4.174970    13.057050    0.002072    -0.001213    -0.002132
O        2.904630     4.203870    17.962990   -0.003824    -0.001802     0.005404
O        0.110750     6.143200    11.504100   -0.000844    -0.001332     0.004661
O        0.142090     6.115730    16.341350    0.005603     0.001119    -0.005501
O        0.000460     4.152740    18.023910   -0.001603     0.002155    -0.000742
O        1.562230     4.188090    15.469360    0.002913     0.001767    -0.000121
O        0.143740     4.174170    13.112880   -0.000812     0.001473    -0.001671
O        4.236740     1.533220    11.477000   -0.000870    -0.004124    -0.001863
O        3.506440     1.559610    17.015670   -0.001866    -0.017402    -0.003778
O        1.351200     1.577620    14.525510   -0.005314     0.002754    -0.019218
O        1.416600     6.137820    23.750420    0.000149    -0.000291     0.000371
O        4.342520     4.170200    20.366450    0.003422    -0.004026     0.004653
O        2.995360     6.137250    21.184360    0.003404    -0.001082     0.002734
O       -1.355290     6.107960    18.839150   -0.001347    -0.000461     0.004180
O       -1.408090     6.122740    23.730800    0.000982     0.000313     0.000389
O        2.939220     6.193520    26.075670    0.002166     0.003229    -0.001565
O        1.513290     4.169900    20.380550    0.000035    -0.003890     0.005105
O        1.480000     6.117460    18.857130    0.001417    -0.003611     0.004260
O        4.277550     4.209990    25.283130   -0.000593     0.000596    -0.000452
O        2.846980     4.173090    22.892240    0.001702     0.000447     0.001015
O        2.931880     4.123370    27.738670   -0.005295    -0.000378    -0.007380
O        0.083580     6.080740    21.263090    0.002041    -0.000996     0.002875
O       -0.003650     6.160200    26.125010    0.001213    -0.000182     0.001472
O       -0.017550     4.068130    27.745120   -0.005545    -0.003628    -0.002313
O        1.452990     4.225530    25.348160    0.000231     0.001477    -0.000366
O       -0.061260     4.108070    22.954530    0.000602    -0.000721     0.002358
O        4.107860     1.536160    21.225650   -0.001651    -0.002408     0.008959
O        1.367660     1.602090    24.371500    0.002222    -0.009812     0.002971
O        0.746510     1.550760    18.859020    0.003946    -0.020074     0.004193
O        2.939800     4.076940     8.309600   -0.016853    -0.007328    -0.003679
O        0.091460     4.060000     8.374650    0.001585     0.000530    -0.004123
O       -1.401640     6.329870    28.478800    0.003746    -0.000626     0.002376
O        1.399850     6.226090    28.509830   -0.003734    -0.001293    -0.001488
82
Lattice="5.664733239 0.020978133 -0.065125422 -1.406166355 7.176283282 0.918116301 -0.381775087 -0.022743384 35.566719414" Properties=species:S:1:pos:R:3:DFT_forces:R:3 DFT_energy=-363.2913811  pbc="T T T"
Fe       4.356970     5.163740    17.123890    0.002844    -0.005626     0.001909
Fe       4.357860     5.148690    12.219500   -0.004607    -0.001289    -0.004465
Fe       4.300200     5.232880    26.961680   -0.002550     0.002154     0.000240
Fe       4.306860     5.126660    22.047130    0.005135    -0.000054    -0.002275
H        4.242160     0.730090    10.897380   -0.003011    -0.001504    -0.002249
H        4.292310     2.347990    10.918640   -0.002553    -0.001890     0.001412
H        3.171230     0.774310    17.505090   -0.005857    -0.009961     0.005222
H        3.158220     2.337190    17.505670    0.005751    -0.011589    -0.007887
H        1.463240     2.396650    15.068530    0.001805     0.002406     0.002907
H        1.472520     0.794860    15.113670    0.000430     0.000359    -0.004207
H        4.221300     0.735820    20.654500    0.002912    -0.001735     0.001390
H        4.211770     2.330980    20.649950    0.002701    -0.000974     0.002935
H        1.385640     2.390270    24.966740    0.001461    -0.005073    -0.003606
H        1.376750     0.770330    24.910680    0.001954    -0.004411     0.006332
H        0.351180     0.775170    18.404980   -0.007339    -0.012361    -0.005310
H        0.366180     2.346250    18.424320    0.005209    -0.013840     0.009001
H        4.354520     6.017930     8.109680   -0.001219     0.005403    -0.008053
H        1.294400     6.002620     8.106860    0.002030     0.003387    -0.003129
H        0.028530     4.215000    28.713690   -0.002121    -0.000153    -0.006782
H        2.915890     4.328980    28.699050   -0.006651     0.003009    -0.010237
H        2.036660     3.696450     8.198190   -0.013100    -0.001953    -0.003436
H        4.832560     3.734760     8.217980   -0.000899     0.007157    -0.006492
H       -0.471050     6.628950    28.641930    0.000365     0.000805    -0.001730
H        2.290270     6.634240    28.622740   -0.003752    -0.000061    -0.003304
K        4.233100     1.580480    14.357970    0.000684     0.000840    -0.000221